[Molden Format]
[Title]
                                                                                
[Atoms] AU
 o     1    8 0.00000000000000E+00 0.00000000000000E+00 -.12273295108490E+00
 h     2    1 0.14114804374558E+01 0.00000000000000E+00 0.97406761178626E+00
 h     3    1 -.14114804374558E+01 0.00000000000000E+00 0.97406761178626E+00
[GTO]
    1 0
 s    6 1.00
 0.27032382631000E+05 0.57227335211155E-03
 0.40523871392000E+04 0.44353233492995E-02
 0.92232722710000E+03 0.23020107706038E-01
 0.26124070989000E+03 0.92822490667928E-01
 0.85354641351000E+02 0.29378500009671E+00
 0.31035035245000E+02 0.67401604501641E+00
 s    2 1.00
 0.12260860728000E+02 0.63839937025506E+00
 0.49987076005000E+01 0.39534587125718E+00
 s    1 1.00
 0.11703108158000E+01 0.10000000000000E+01
 s    1 1.00
 0.46474740994000E+00 0.10000000000000E+01
 s    1 1.00
 0.18504536357000E+00 0.10000000000000E+01
 p    4 1.00
 0.63274954801000E+02 0.12018332222616E-01
 0.14627049379000E+02 0.83005421790056E-01
 0.44501223456000E+01 0.31991743925964E+00
 0.15275799647000E+01 0.70715542916104E+00
 p    1 1.00
 0.52935117943000E+00 0.10000000000000E+01
 p    1 1.00
 0.17478421270000E+00 0.10000000000000E+01
 d    1 1.00
 0.23140000000000E+01 0.10000000000000E+01
 d    1 1.00
 0.64500000000000E+00 0.10000000000000E+01
 f    1 1.00
 0.14280000000000E+01 0.10000000000000E+01
 
    2 0
 s    3 1.00
 0.34061341000000E+02 0.25439307208879E-01
 0.51235746000000E+01 0.19008594890375E+00
 0.11646626000000E+01 0.85244113011042E+00
 s    1 1.00
 0.32723041000000E+00 0.10000000000000E+01
 s    1 1.00
 0.10307241000000E+00 0.10000000000000E+01
 p    1 1.00
 0.80000000000000E+00 0.10000000000000E+01
 
    3 0
 s    3 1.00
 0.34061341000000E+02 0.25439307208879E-01
 0.51235746000000E+01 0.19008594890375E+00
 0.11646626000000E+01 0.85244113011042E+00
 s    1 1.00
 0.32723041000000E+00 0.10000000000000E+01
 s    1 1.00
 0.10307241000000E+00 0.10000000000000E+01
 p    1 1.00
 0.80000000000000E+00 0.10000000000000E+01
 
[MO]
 Sym=     1a   
 Ene= -.19121484999792E+02
 Spin= Alpha
 Occup= 2.000000
     1 0.43505287013673E+00
     2 0.63975507803321E+00
     3 0.34172379344210E-01
     4 -.22117727462198E-01
     5 0.92011082315338E-02
     6 -.86510081422315E-14
     7 0.19035624786679E-14
     8 0.17915884604630E-02
     9 0.53218958920670E-13
    10 -.13096452203183E-14
    11 -.29076671695032E-02
    12 0.70160535277240E-14
    13 0.92939228497268E-15
    14 0.11343228801872E-02
    15 0.78881006150665E-04
    16 -.10019890848707E-03
    17 0.21317902336401E-04
    18 0.16587321128739E-15
    19 -.17389390658561E-14
    20 0.40787675813123E-16
    21 -.39448974562264E-03
    22 0.48575653755564E-03
    23 -.91266791933004E-04
    24 -.90806271744367E-16
    25 0.17339739351508E-13
    26 -.41493466784253E-15
    27 0.29412851962076E-15
    28 0.15423690871138E-15
    29 0.35769802042914E-04
    30 -.12640032084847E-14
    31 -.11219165167812E-15
    32 -.96190590620334E-04
    33 0.86938839008862E-15
    34 -.94738875832728E-16
    35 0.48200365274535E-04
    36 0.87174766516455E-16
    37 0.85996553124774E-03
    38 0.15211041828854E-02
    39 -.19091140741855E-02
    40 -.82503406608902E-03
    41 0.19261010532021E-15
    42 -.57484532230073E-03
    43 0.85996553126720E-03
    44 0.15211041829739E-02
    45 -.19091140742128E-02
    46 0.82503406612477E-03
    47 0.52564812381860E-15
    48 -.57484532233114E-03
 Sym=     2a   
 Ene= -.10188861294666E+01
 Spin= Alpha
 Occup= 2.000000
     1 -.97460096971391E-01
     2 -.22913456939794E+00
     3 0.33515396245024E+00
     4 0.43064906920882E+00
     5 0.15373339888515E+00
     6 0.93676669274401E-13
     7 0.54593666313327E-13
     8 0.89542770445989E-01
     9 -.54428924327300E-13
    10 0.19739468783437E-13
    11 0.72741394948635E-01
    12 0.21308344452300E-11
    13 0.81345589159721E-15
    14 0.11753242741751E-01
    15 0.19355924446625E-02
    16 -.27725264554265E-02
    17 0.83693401076397E-03
    18 0.77937537283191E-15
    19 -.47307384864561E-13
    20 0.19795189823420E-14
    21 0.35364897439079E-02
    22 -.62975243648253E-02
    23 0.27610346209173E-02
    24 -.81161990610746E-14
    25 0.38742733707503E-12
    26 -.16926902368381E-13
    27 -.49937088599504E-14
    28 -.58957207498466E-15
    29 -.41547767653606E-03
    30 -.21919679818465E-13
    31 0.11256604338087E-14
    32 0.13713050896664E-02
    33 0.28619443300880E-13
    34 -.33466649142790E-15
    35 -.81388329294543E-03
    36 -.11851701802747E-14
    37 0.97206408484923E-01
    38 0.71044151726704E-01
    39 0.69939036978963E-02
    40 -.15747448120502E-01
    41 -.34448704053127E-14
    42 -.87172712205466E-02
    43 0.97206408486259E-01
    44 0.71044151726661E-01
    45 0.69939037032169E-02
    46 0.15747448120979E-01
    47 -.29301769366217E-13
    48 -.87172712206497E-02
 Sym=     3a   
 Ene= -.53688734854090E+00
 Spin= Alpha
 Occup= 2.000000
     1 -.49089424782645E-15
     2 -.12188518537463E-12
     3 0.19381643339161E-11
     4 -.49372347314609E-11
     5 -.53185937965717E-11
     6 0.38742745806725E+00
     7 -.27096380696113E-13
     8 0.50273769560389E-12
     9 0.29297725654346E+00
    10 -.61020632994011E-13
    11 -.24826353184128E-11
    12 0.12085802280628E+00
    13 0.70457528703797E-13
    14 -.28377846602049E-11
    15 0.38906828108478E-13
    16 -.75085231976192E-13
    17 0.36178403867714E-13
    18 0.33862171057228E-14
    19 0.74949722359439E-02
    20 0.11938393345228E-14
    21 -.52578384137296E-12
    22 0.81484974855444E-12
    23 -.28906590718148E-12
    24 -.55059830046470E-14
    25 0.13436625089405E-01
    26 0.51238943250158E-14
    27 0.81985066982752E-03
    28 -.96534043226593E-15
    29 0.26048314249260E-13
    30 -.14134144478743E-02
    31 0.16155370891516E-14
    32 -.86203888471724E-13
    33 0.31346935039445E-03
    34 -.32039699236618E-15
    35 0.51256407655351E-13
    36 -.73277041318009E-15
    37 0.15067396050167E+00
    38 0.18603495955035E+00
    39 0.65657354934446E-01
    40 -.94313463308260E-02
    41 -.20344836927273E-13
    42 -.18488896320924E-01
    43 -.15067396050110E+00
    44 -.18603495953878E+00
    45 -.65657354934678E-01
    46 -.94313463274118E-02
    47 -.11088352458998E-13
    48 0.18488896319475E-01
 Sym=     4a   
 Ene= -.39033919153559E+00
 Spin= Alpha
 Occup= 2.000000
     1 0.37424280522852E-01
     2 0.89381094684228E-01
     3 -.13870476596716E+00
     4 -.20127655505907E+00
     5 -.23226728407509E+00
     6 -.13364893201788E-12
     7 -.71412052299216E-12
     8 0.41718938763593E+00
     9 0.31946907510477E-12
    10 -.23755347121613E-12
    11 0.31866357755841E+00
    12 0.28621988870242E-11
    13 -.76597530944116E-12
    14 0.23652152402560E+00
    15 -.23103541822086E-04
    16 -.27575554843027E-02
    17 0.27806590261248E-02
    18 0.60333192924483E-14
    19 -.40020197609756E-13
    20 -.36316218796782E-15
    21 -.83037837552513E-02
    22 -.67821345276879E-02
    23 0.15085918282939E-01
    24 -.61240984614259E-14
    25 0.48776459805686E-12
    26 -.16697724870721E-13
    27 -.90453893878654E-15
    28 0.15739729176276E-14
    29 0.27027423347770E-03
    30 -.21591252009051E-13
    31 -.26268238151318E-14
    32 0.59640268615433E-03
    33 0.22804818342305E-13
    34 0.51511755199639E-15
    35 -.95901362132800E-03
    36 -.49397951248204E-15
    37 0.86922972772848E-01
    38 0.12276643749923E+00
    39 0.42256902398290E-01
    40 -.17646948564737E-01
    41 -.50982374577525E-13
    42 0.98237209428118E-02
    43 0.86922972773409E-01
    44 0.12276643750270E+00
    45 0.42256902403039E-01
    46 0.17646948565742E-01
    47 -.24793270752840E-13
    48 0.98237209421271E-02
 Sym=     5a   
 Ene= -.31457004444943E+00
 Spin= Alpha
 Occup= 2.000000
     1 0.87177924927354E-13
     2 0.13267417905240E-12
     3 0.38349809695512E-12
     4 -.23015842162641E-11
     5 0.46884802691953E-11
     6 0.41335051388569E-13
     7 0.47636733271604E+00
     8 0.41584723878902E-12
     9 -.44002022770529E-12
    10 0.38297384287866E+00
    11 0.14903893949891E-11
    12 0.99577313990719E-13
    13 0.33845020800845E+00
    14 0.15813581324870E-11
    15 -.22952567367188E-13
    16 0.31001789668393E-13
    17 -.80492223012053E-14
    18 0.11704517390236E-14
    19 0.11045405049749E-13
    20 0.25642316967305E-02
    21 0.18695112095735E-12
    22 -.30516848510122E-12
    23 0.11821736414388E-12
    24 -.59759199216715E-14
    25 -.12054295932474E-12
    26 0.15454589652064E-01
    27 -.14322846429159E-14
    28 -.13474763198445E-02
    29 -.48870345229843E-14
    30 0.94224379398449E-14
    31 0.12202669544871E-02
    32 0.19416128539098E-13
    33 -.75008264450316E-14
    34 0.58756223505902E-03
    35 -.12859483698029E-13
    36 0.11567392360565E-14
    37 0.29957388537834E-12
    38 -.25164800680962E-11
    39 0.58317196279674E-12
    40 0.25196775737463E-12
    41 0.25883545920325E-01
    42 0.99922102134647E-13
    43 0.19434442687748E-12
    44 -.31696662393830E-11
    45 0.81236602522893E-12
    46 -.58821531067532E-12
    47 0.25883545920336E-01
    48 0.34728055157230E-12
 Sym=     6a   
 Ene= 0.19290217660232E-01
 Spin= Alpha
 Occup= 0.000000
     1 0.33090015441955E-01
     2 0.83599397546567E-01
     3 -.19198623678070E+00
     4 0.49341007524007E-01
     5 -.11983621837850E+01
     6 -.22875437046658E-11
     7 0.56547967555419E-13
     8 -.15530594887935E+00
     9 0.18101322262515E-10
    10 -.69755779414717E-12
    11 -.10780152028652E+00
    12 0.20301720494838E-11
    13 -.65492896987947E-12
    14 -.32963382755682E+00
    15 0.12315401069020E-02
    16 -.33133392340674E-03
    17 -.90020618349522E-03
    18 -.10681456797557E-13
    19 -.40714676965747E-12
    20 0.64159053965252E-14
    21 0.54656356630025E-02
    22 -.69567517825788E-03
    23 -.47699604847446E-02
    24 0.10836695972785E-14
    25 0.64753736723263E-11
    26 -.40386152991632E-13
    27 -.19637336465736E-13
    28 0.95455591352294E-14
    29 -.57518807014256E-04
    30 -.31411908407039E-12
    31 -.64552331885750E-14
    32 -.25484183753652E-03
    33 0.34046533561104E-12
    34 -.63514782771952E-14
    35 0.33201141501766E-03
    36 -.48221309708415E-14
    37 0.33256901843176E-01
    38 0.83754501896306E-01
    39 0.95240191100023E+00
    40 0.28527164915292E-01
    41 -.70963263482439E-13
    42 0.19624738384736E-01
    43 0.33256901848976E-01
    44 0.83754501936016E-01
    45 0.95240191097424E+00
    46 -.28527164897881E-01
    47 0.21772247851015E-12
    48 0.19624738374070E-01
 Sym=     7a   
 Ene= 0.94970998435596E-01
 Spin= Alpha
 Occup= 0.000000
     1 0.32479806093192E-12
     2 0.61646679842676E-12
     3 0.94915639593905E-12
     4 -.91138415331712E-11
     5 0.52821077879406E-12
     6 0.24817780329656E+00
     7 0.70950642991118E-13
     8 -.19976778403082E-11
     9 0.10563051621943E+00
    10 -.19821837771353E-12
    11 -.32080962103200E-11
    12 0.68972152976060E+00
    13 0.55058763956622E-13
    14 -.19575036893233E-11
    15 -.12031295928294E-12
    16 0.57619341434834E-13
    17 0.62693617848102E-13
    18 -.18596461378282E-13
    19 -.58895210016334E-03
    20 0.15855444401794E-13
    21 0.51567085684271E-12
    22 -.41183104891978E-13
    23 -.47448775195073E-12
    24 0.15205909375610E-12
    25 -.13383302202955E-01
    26 -.99679203333823E-13
    27 0.60967435356896E-03
    28 0.76651535027903E-14
    29 0.15061388888306E-14
    30 -.29247101425599E-04
    31 -.10765246910795E-13
    32 -.20865913328182E-13
    33 -.78871687780546E-03
    34 0.48136433666892E-15
    35 0.18845215964793E-13
    36 0.15712468278090E-13
    37 -.28738679945862E-01
    38 -.60891135154906E-02
    39 -.16923112486389E+01
    40 -.36630906902266E-01
    41 -.17462286111919E-12
    42 -.33897756375985E-01
    43 0.28738679946851E-01
    44 0.60891135242030E-02
    45 0.16923112486409E+01
    46 -.36630906899799E-01
    47 0.54416423862896E-12
    48 0.33897756376345E-01
 Sym=     8a   
 Ene= 0.36298965516425E+00
 Spin= Alpha
 Occup= 0.000000
     1 -.57890099093473E-12
     2 -.70598656183862E-12
     3 -.99255586612318E-11
     4 0.45043295652468E-10
     5 0.41751028088767E-11
     6 0.11078757233207E+00
     7 0.10217463605812E-12
     8 0.88274586911540E-12
     9 0.37834584025352E+00
    10 0.43119454718870E-13
    11 0.16429214858693E-10
    12 0.12775050021370E+01
    13 -.98889951755877E-13
    14 0.13522847553512E-10
    15 -.21938521723183E-12
    16 0.22372631034951E-12
    17 -.43410931176794E-14
    18 -.10669233954037E-13
    19 -.19137863941310E-01
    20 0.31220794399741E-13
    21 0.27188281159592E-11
    22 -.32128625813124E-11
    23 0.49403446535330E-12
    24 -.79815877112602E-13
    25 0.82272209687852E-01
    26 0.76909171418029E-14
    27 0.12279705462068E-02
    28 -.33524259045138E-14
    29 -.18010142766298E-12
    30 -.38330472808527E-02
    31 0.97933582363938E-14
    32 0.42459329190286E-12
    33 0.21855519114410E-02
    34 -.52956069091793E-14
    35 -.18296187084336E-12
    36 -.93870897520696E-14
    37 -.12655321842749E+00
    38 -.15041581458480E+01
    39 0.47172157527148E+00
    40 0.99684969458077E-01
    41 0.97564867591660E-13
    42 0.53695361447862E-01
    43 0.12655321842774E+00
    44 0.15041581457668E+01
    45 -.47172157524870E+00
    46 0.99684969444625E-01
    47 -.31876625335834E-12
    48 -.53695361435689E-01
 Sym=     9a   
 Ene= 0.41124605243356E+00
 Spin= Alpha
 Occup= 0.000000
     1 -.33605907929835E-01
     2 -.73356535025921E-01
     3 -.26884416690800E-01
     4 0.82960909269746E+00
     5 0.65868565590975E+00
     6 0.74840021440821E-12
     7 0.59027466676856E-12
     8 -.13167993552392E+00
     9 -.51622208202366E-11
    10 0.80936188335917E-12
    11 -.16713644299245E+00
    12 -.19399827544166E-10
    13 -.19354774351532E-11
    14 0.15960339234665E+01
    15 -.61828544310075E-02
    16 0.10448673564386E-01
    17 -.42658191333789E-02
    18 0.17877711831551E-13
    19 0.15882906117028E-12
    20 0.21278450726730E-13
    21 0.20924740790609E-01
    22 -.42379263398755E-01
    23 0.21454522608147E-01
    24 0.29877938244770E-13
    25 -.19282949320639E-11
    26 -.34201101176928E-13
    27 -.19631909067525E-13
    28 0.41922164609766E-14
    29 -.16731950839721E-02
    30 0.60013506143823E-13
    31 -.72233765718287E-14
    32 0.41506411327651E-02
    33 -.33674536221974E-13
    34 0.15989279819463E-14
    35 -.19058143643371E-02
    36 -.33983028965501E-14
    37 -.66804266892023E-01
    38 -.13352524581978E+01
    39 0.23379825350337E+00
    40 0.73924078228598E-01
    41 0.61265265267929E-13
    42 0.62314946372025E-01
    43 -.66804266888519E-01
    44 -.13352524582447E+01
    45 0.23379825351373E+00
    46 -.73924078233331E-01
    47 -.50026758325160E-13
    48 0.62314946377688E-01
 Sym=    10a   
 Ene= 0.42750635220710E+00
 Spin= Alpha
 Occup= 0.000000
     1 0.20696854370503E-12
     2 0.48258536087838E-12
     3 0.71488499490188E-12
     4 -.56949098262097E-11
     5 -.28800895751930E-10
     6 0.29181204048470E-12
     7 -.31783941333043E+00
     8 -.91781360486750E-11
     9 0.51918855422510E-14
    10 -.70014059894072E+00
    11 -.23429440957222E-10
    12 -.11951962940931E-11
    13 0.12338963066057E+01
    14 0.73988152522975E-11
    15 0.25020600649728E-12
    16 -.18030234307875E-12
    17 -.69903663418537E-13
    18 0.34735556536099E-14
    19 0.28372301508243E-13
    20 -.39495527203292E-02
    21 -.65574360049980E-12
    22 0.99122831015020E-12
    23 -.33548470965041E-12
    24 0.23055889462955E-14
    25 -.16598195449796E-12
    26 0.43559104726299E-02
    27 -.70003471914706E-14
    28 0.47658760388103E-03
    29 0.58824160789536E-13
    30 0.19769917077849E-13
    31 -.46988612256747E-03
    32 -.15875996724047E-12
    33 -.10377965766112E-13
    34 -.16952324513956E-03
    35 0.79839073893603E-13
    36 0.47772388880673E-14
    37 0.25482633003504E-11
    38 0.37649313163606E-10
    39 -.12895929125650E-10
    40 -.20032577895871E-11
    41 -.48721068587681E-02
    42 -.21907107587006E-11
    43 0.25591199151974E-11
    44 0.37430491608017E-10
    45 -.15129164422790E-10
    46 0.16458252153642E-11
    47 -.48721068588814E-02
    48 -.18486975857313E-11
 Sym=    11a   
 Ene= 0.44533653942157E+00
 Spin= Alpha
 Occup= 0.000000
     1 -.14165267271255E-01
     2 -.31926316754609E-01
     3 -.23896610299461E-01
     4 0.43466012691066E+00
     5 0.40852622051133E+00
     6 -.26868218536226E-12
     7 -.87690316825114E-11
     8 0.31348333839375E+00
     9 0.76099867982952E-11
    10 -.21659022786532E-10
    11 0.77111787866474E+00
    12 -.15876575234709E-10
    13 0.35833585700375E-10
    14 -.34285922471507E+00
    15 -.81056014141408E-02
    16 0.52421034416682E-02
    17 0.28634979724725E-02
    18 -.23260838478349E-13
    19 -.37465404636885E-13
    20 -.92951826947246E-13
    21 0.10238952874158E-01
    22 -.18937417777570E-01
    23 0.86984649034124E-02
    24 0.64622565888044E-13
    25 0.23534025286090E-11
    26 0.32018760086902E-13
    27 -.23645765515386E-13
    28 0.25083004532122E-13
    29 -.15698351708844E-02
    30 -.12238758459870E-12
    31 -.17808736901821E-13
    32 0.40683280455909E-02
    33 0.15411170804216E-12
    34 -.15843645026435E-13
    35 -.19621731522504E-02
    36 -.41280114841224E-14
    37 -.99098744945290E-01
    38 -.11923389452194E+01
    39 0.61771134672686E+00
    40 0.35775951828061E-01
    41 -.29205438762780E-13
    42 0.53932434758911E-01
    43 -.99098744942557E-01
    44 -.11923389452353E+01
    45 0.61771134673146E+00
    46 -.35775951821288E-01
    47 0.42896391704961E-13
    48 0.53932434756048E-01
 Sym=    12a   
 Ene= 0.57614115935301E+00
 Spin= Alpha
 Occup= 0.000000
     1 0.11455817209522E-11
     2 0.21769283091273E-11
     3 0.43363604821504E-11
     4 -.55185769802118E-10
     5 0.12275923835762E-09
     6 -.35481335991526E+00
     7 -.11363927179460E-12
     8 -.20055017255013E-11
     9 -.78213020712492E+00
    10 -.71869219594462E-12
    11 0.23557369669535E-13
    12 0.20112286860873E+01
    13 0.76176818282389E-12
    14 0.32664800638677E-10
    15 -.39127542883487E-12
    16 0.28977601191561E-12
    17 0.10149941691925E-12
    18 -.20790105748156E-13
    19 -.54728945933438E-02
    20 0.38481042326613E-13
    21 0.16074086495336E-11
    22 -.11379494637015E-11
    23 -.46945918583210E-12
    24 0.19144939591317E-12
    25 0.26537918639200E-01
    26 -.14468987225633E-12
    27 -.31057737708809E-03
    28 0.79044537960497E-14
    29 -.78686806734198E-13
    30 0.10950901111543E-03
    31 -.57199736447015E-14
    32 0.11277374578556E-12
    33 0.30717426535011E-03
    34 -.48849639630826E-14
    35 -.72043165115268E-14
    36 0.17195333186665E-13
    37 0.63694500461349E-01
    38 0.15966160042189E+00
    39 -.16792793877895E+01
    40 0.19941980899414E-01
    41 -.34565837821906E-12
    42 0.24365660449281E-01
    43 -.63694500457693E-01
    44 -.15966160048200E+00
    45 0.16792793877468E+01
    46 0.19941980901157E-01
    47 0.79883535988518E-12
    48 -.24365660441067E-01
 Sym=    13a   
 Ene= 0.59903104839632E+00
 Spin= Alpha
 Occup= 0.000000
     1 0.52156359613422E-01
     2 0.10808112511026E+00
     3 0.98158468767446E-01
     4 -.22530190031878E+01
     5 0.49313809901625E+01
     6 0.11357900041024E-10
     7 -.41067194695654E-12
     8 -.70155970935824E-01
     9 -.90726331630079E-11
    10 -.37886362622886E-11
    11 0.22275463481276E-01
    12 -.50701992985784E-10
    13 0.43822519208047E-11
    14 0.12656892697608E+01
    15 -.72990188858678E-02
    16 0.94527655385052E-02
    17 -.21537466526374E-02
    18 -.10663461194335E-13
    19 0.46565814242481E-12
    20 0.50000566350381E-13
    21 0.17132554979484E-01
    22 -.32423272750742E-01
    23 0.15290717771257E-01
    24 0.98556497118115E-13
    25 -.10311567655401E-10
    26 -.88744371459373E-13
    27 0.72042896819230E-14
    28 0.42368648960113E-14
    29 -.13797843131398E-02
    30 0.42553164812744E-12
    31 0.28580795109063E-14
    32 0.32414018681021E-02
    33 -.43519721700247E-12
    34 -.85424302622846E-14
    35 -.13902269570211E-02
    36 -.19372196673957E-14
    37 0.21200755397269E-01
    38 -.93434227242614E+00
    39 -.99534853775559E+00
    40 0.59621976627323E-01
    41 0.39242115403211E-12
    42 0.65263697537602E-01
    43 0.21200755400827E-01
    44 -.93434227247348E+00
    45 -.99534853782832E+00
    46 -.59621976654332E-01
    47 -.92808835371724E-12
    48 0.65263697557259E-01
 Sym=    14a   
 Ene= 0.11636837141393E+01
 Spin= Alpha
 Occup= 0.000000
     1 -.35787825775246E-02
     2 -.96004659264263E-02
     3 0.48500641887565E-01
     4 0.19999490787533E-01
     5 -.93853824693870E+00
     6 0.40381190276418E-12
     7 -.18806323952592E-12
     8 -.81100535008513E-01
     9 0.89321501052797E-11
    10 0.56604178566903E-12
    11 -.19490894239718E+00
    12 -.94886319690294E-12
    13 -.49690748763688E-12
    14 -.57531523026107E+00
    15 -.66438987638296E-02
    16 0.36631440754701E-03
    17 0.62775843562826E-02
    18 -.17727509911127E-13
    19 -.64316577886368E-13
    20 -.11342226661317E-13
    21 -.21365426291386E+00
    22 -.69251615752213E-01
    23 0.28290587866608E+00
    24 -.12973024039892E-11
    25 0.35295001700136E-11
    26 0.99102065542511E-13
    27 0.15070419961757E-13
    28 -.16662785805364E-14
    29 0.84371503769084E-03
    30 -.11574467044102E-12
    31 0.11842230070562E-14
    32 -.26539068737984E-02
    33 0.95525580350646E-13
    34 0.10513242982626E-14
    35 0.15219443670491E-02
    36 0.13582925919154E-13
    37 -.41853555854630E-01
    38 0.62986039281137E+00
    39 0.47073089676417E-01
    40 -.31804310643046E+00
    41 -.16842913224575E-11
    42 0.29772283899117E+00
    43 -.41853555858073E-01
    44 0.62986039283787E+00
    45 0.47073089661229E-01
    46 0.31804310643572E+00
    47 0.19636126093046E-11
    48 0.29772283898432E+00
 Sym=    15a   
 Ene= 0.11944713989915E+01
 Spin= Alpha
 Occup= 0.000000
     1 -.65712557412576E-13
     2 -.15930310771605E-12
     3 0.29257220912701E-13
     4 0.31049774018171E-11
     5 -.67902815293310E-11
     6 -.31203506623468E-12
     7 0.84473309392731E-13
     8 -.34219065156837E-12
     9 0.70257829718426E-12
    10 -.91107141417358E-14
    11 0.11732360275563E-12
    12 0.11874726731773E-11
    13 -.63837012777913E-13
    14 -.29493326101931E-11
    15 -.31867875313114E-13
    16 0.92147440929076E-14
    17 0.22653131220207E-13
    18 0.50242737495449E-02
    19 -.52776636581764E-14
    20 -.33424989265578E-15
    21 -.55140187257189E-12
    22 -.82669608199621E-12
    23 0.13780979545681E-11
    24 0.31363013565952E+00
    25 0.43462211182814E-12
    26 -.56438523167808E-13
    27 0.14754379207759E-14
    28 0.22517213877493E-14
    29 -.54390548579565E-14
    30 -.14744586296483E-13
    31 -.64664232087556E-15
    32 0.18390658854485E-13
    33 0.12765078604021E-13
    34 -.23743589327630E-14
    35 -.11093401017040E-13
    36 -.30245581093975E-02
    37 0.34033319941432E-12
    38 0.10269325052353E-12
    39 0.75500945321032E-12
    40 -.44060562522290E-12
    41 0.42125545681134E+00
    42 0.18709664377793E-11
    43 -.25536910250763E-12
    44 0.28190874768983E-11
    45 0.20137611648815E-11
    46 0.10824231020997E-11
    47 -.42125545681132E+00
    48 0.12603533544755E-11
 Sym=    16a   
 Ene= 0.12978507100931E+01
 Spin= Alpha
 Occup= 0.000000
     1 0.69510309500407E-13
     2 0.27463035719994E-12
     3 -.16821560502375E-11
     4 0.21039623776386E-11
     5 0.69870753941677E-12
     6 0.40972284457923E-13
     7 -.10071589339974E+00
     8 0.61322268390206E-13
     9 -.27190108533749E-12
    10 -.63169202033162E-01
    11 0.29314022935519E-12
    12 -.20923201360073E-12
    13 -.20446001178245E+00
    14 0.51974569693709E-12
    15 -.24648562583151E-14
    16 0.36298550292175E-14
    17 -.11649987709023E-14
    18 -.23989533373074E-14
    19 -.63439268154991E-14
    20 0.73614792203548E-03
    21 0.63147921506475E-13
    22 0.78408403856343E-13
    23 -.14155632536282E-12
    24 0.55588826111051E-13
    25 -.18280483439373E-12
    26 0.38889671064268E+00
    27 0.11334495575747E-14
    28 0.14716008964357E-02
    29 -.54875430779750E-14
    30 0.21155667869457E-14
    31 -.41364291645185E-02
    32 0.13849304267749E-13
    33 -.36362489428282E-14
    34 0.21620693804106E-02
    35 -.64869926566628E-14
    36 -.14940459774030E-14
    37 -.20346264014349E-12
    38 -.20238309366611E-12
    39 -.18088060917609E-12
    40 0.20018354897474E-12
    41 0.37782915913345E+00
    42 -.75502416033959E-14
    43 0.83893836266414E-13
    44 -.13433782339932E-11
    45 -.70875818467151E-13
    46 -.36474028119461E-12
    47 0.37782915913344E+00
    48 0.25841197874366E-12
 Sym=    17a   
 Ene= 0.15086863033226E+01
 Spin= Alpha
 Occup= 0.000000
     1 0.34938155660496E-12
     2 0.13204515550567E-11
     3 -.98660937496140E-11
     4 0.19200746755893E-10
     5 0.16061039765025E-10
     6 -.12986076242186E+00
     7 -.47197547850606E-13
     8 -.37566953150314E-11
     9 0.10746352418259E+01
    10 0.77800811826921E-13
    11 0.10776538483157E-10
    12 0.95050212975994E+00
    13 0.93416245405215E-13
    14 0.67720262167515E-11
    15 -.13951679307164E-13
    16 -.24903417050966E-13
    17 0.38855096358131E-13
    18 -.29622741902967E-13
    19 -.54771063727057E-02
    20 0.30278321726382E-13
    21 -.29651232396676E-12
    22 0.44139322603427E-11
    23 -.41174199363760E-11
    24 -.57502712362968E-12
    25 0.72984751303390E+00
    26 0.24969712100776E-12
    27 0.86019696330877E-03
    28 -.17170405692934E-14
    29 -.17818231779315E-12
    30 -.17066900759552E-01
    31 0.74828293175810E-14
    32 0.32929836989650E-12
    33 0.15912825429154E-01
    34 -.51791776577420E-14
    35 -.90241704912128E-13
    36 -.11700351487108E-13
    37 0.36000613143814E+00
    38 -.23328221296721E+01
    39 0.55031189386504E+00
    40 0.25016879012504E+00
    41 0.15893366410181E-12
    42 0.45751882246042E+00
    43 -.36000613143010E+00
    44 0.23328221296363E+01
    45 -.55031189386751E+00
    46 0.25016879011418E+00
    47 -.43502261813857E-12
    48 -.45751882245070E+00
 Sym=    18a   
 Ene= 0.16293798577717E+01
 Spin= Alpha
 Occup= 0.000000
     1 0.15949416792511E-01
     2 0.54554408360040E-01
     3 -.45796033009874E+00
     4 0.98731297384734E+00
     5 0.19786128968155E+01
     6 0.19820537276889E-11
     7 0.13706348135857E-11
     8 -.11305539584638E+00
     9 0.70160542014950E-12
    10 -.26335936475954E-11
    11 0.65771986009707E+00
    12 0.67513735654941E-12
    13 0.13961424811821E-11
    14 0.99669411387032E+00
    15 -.53267913250027E-03
    16 0.30812667681706E-02
    17 -.25485876356704E-02
    18 -.16432330536848E-13
    19 -.85556720935415E-13
    20 0.20477504950674E-13
    21 0.47244394910852E+00
    22 -.66095977018628E+00
    23 0.18851582107775E+00
    24 -.14030915119456E-12
    25 0.62424289404715E-11
    26 0.15351321590570E-12
    27 -.39495497298978E-14
    28 0.12921923375174E-13
    29 -.66875053139598E-02
    30 -.72543083764701E-13
    31 -.83309521848783E-14
    32 0.21324156286137E-01
    33 0.77841960770642E-13
    34 -.90056272552819E-14
    35 -.12351926396994E-01
    36 0.65807627599528E-15
    37 0.35847400679486E+00
    38 -.22979944129589E+01
    39 0.20159812621218E+00
    40 0.30195940938096E+00
    41 -.31723355605351E-12
    42 0.20386812789807E+00
    43 0.35847400679900E+00
    44 -.22979944129518E+01
    45 0.20159812620895E+00
    46 -.30195940937806E+00
    47 0.36738488721547E-12
    48 0.20386812789933E+00
 Sym=    19a   
 Ene= 0.17699065903563E+01
 Spin= Alpha
 Occup= 0.000000
     1 0.38484495147228E-12
     2 0.13857534591603E-11
     3 -.10607329697080E-10
     4 0.21485399701639E-10
     5 0.49984197658544E-11
     6 -.16920454679144E+00
     7 -.53938870497941E-13
     8 -.33075523673269E-11
     9 0.27045715337160E+00
    10 0.16623141030055E-12
    11 0.10365281521899E-10
    12 -.39342670977789E+00
    13 0.48839834471511E-13
    14 0.10570817923742E-11
    15 -.82388290891694E-14
    16 0.25965222656370E-13
    17 -.17726393567200E-13
    18 0.74820391358102E-14
    19 -.68679443597465E-02
    20 -.91916116580679E-14
    21 -.13571766909503E-11
    22 0.16853630507238E-11
    23 -.32818635977356E-12
    24 -.42052974112486E-12
    25 0.24853773757793E+00
    26 0.12904422934006E-12
    27 -.22837140978492E-02
    28 -.72937461380901E-15
    29 -.12207280476333E-12
    30 -.48960050157774E-02
    31 -.31573253778398E-15
    32 0.28586588112829E-12
    33 0.79599289941567E-02
    34 0.12942912683077E-14
    35 -.12208802733538E-12
    36 -.51619568636643E-14
    37 0.98197067735305E-01
    38 -.40563704477801E+00
    39 0.35219724128926E+00
    40 0.58305727175468E+00
    41 0.23199571643143E-12
    42 -.54038952879379E+00
    43 -.98197067730125E-01
    44 0.40563704475770E+00
    45 -.35219724129262E+00
    46 0.58305727174359E+00
    47 -.61829365608194E-12
    48 0.54038952880146E+00
 Sym=    20a   
 Ene= 0.19639891266468E+01
 Spin= Alpha
 Occup= 0.000000
     1 0.14489879964095E-01
     2 0.61995814479307E-01
     3 -.82035075658510E+00
     4 0.27507742360271E+01
     5 -.16084486212133E+00
     6 0.48035166947386E-11
     7 0.99416620223379E-12
     8 -.40330564411459E+00
     9 0.16797191745029E-10
    10 -.17205444197440E-11
    11 0.14026596390995E+01
    12 -.86467490275497E-11
    13 0.72327245648470E-12
    14 -.67552011418047E-01
    15 -.13667562378215E-03
    16 0.37477745886239E-03
    17 -.23810183508024E-03
    18 -.28374133349821E-13
    19 -.43959967299193E-12
    20 -.39122907823323E-13
    21 0.40672826907804E-01
    22 0.88971448912251E-01
    23 -.12964427582006E+00
    24 0.14055499602425E-11
    25 -.45155427950827E-12
    26 -.23535196709038E-12
    27 0.89403042015510E-13
    28 0.66015267651243E-14
    29 -.18701321519707E-01
    30 -.29343797234110E-12
    31 -.23679975332024E-14
    32 0.43916897192874E-01
    33 0.17349120473593E-12
    34 -.64888800280589E-14
    35 -.18826441480587E-01