[Molden Format]
[Title]
                                                                                
[Atoms] AU
 o     1    8 0.00000000000000E+00 0.00000000000000E+00 -.12178995146073E+00
 h     2    1 0.14171334352028E+01 0.00000000000000E+00 0.96657861477099E+00
 h     3    1 -.14171334352028E+01 0.00000000000000E+00 0.96657861477099E+00
[GTO]
    1 0
 s    6 1.00
 0.27032382631000E+05 0.57227335211155E-03
 0.40523871392000E+04 0.44353233492995E-02
 0.92232722710000E+03 0.23020107706038E-01
 0.26124070989000E+03 0.92822490667928E-01
 0.85354641351000E+02 0.29378500009671E+00
 0.31035035245000E+02 0.67401604501641E+00
 s    2 1.00
 0.12260860728000E+02 0.63839937025506E+00
 0.49987076005000E+01 0.39534587125718E+00
 s    1 1.00
 0.11703108158000E+01 0.10000000000000E+01
 s    1 1.00
 0.46474740994000E+00 0.10000000000000E+01
 s    1 1.00
 0.18504536357000E+00 0.10000000000000E+01
 p    4 1.00
 0.63274954801000E+02 0.12018332222616E-01
 0.14627049379000E+02 0.83005421790056E-01
 0.44501223456000E+01 0.31991743925964E+00
 0.15275799647000E+01 0.70715542916104E+00
 p    1 1.00
 0.52935117943000E+00 0.10000000000000E+01
 p    1 1.00
 0.17478421270000E+00 0.10000000000000E+01
 d    1 1.00
 0.23140000000000E+01 0.10000000000000E+01
 d    1 1.00
 0.64500000000000E+00 0.10000000000000E+01
 f    1 1.00
 0.14280000000000E+01 0.10000000000000E+01
 
    2 0
 s    3 1.00
 0.34061341000000E+02 0.25439307208879E-01
 0.51235746000000E+01 0.19008594890375E+00
 0.11646626000000E+01 0.85244113011042E+00
 s    1 1.00
 0.32723041000000E+00 0.10000000000000E+01
 s    1 1.00
 0.10307241000000E+00 0.10000000000000E+01
 p    1 1.00
 0.80000000000000E+00 0.10000000000000E+01
 
    3 0
 s    3 1.00
 0.34061341000000E+02 0.25439307208879E-01
 0.51235746000000E+01 0.19008594890375E+00
 0.11646626000000E+01 0.85244113011042E+00
 s    1 1.00
 0.32723041000000E+00 0.10000000000000E+01
 s    1 1.00
 0.10307241000000E+00 0.10000000000000E+01
 p    1 1.00
 0.80000000000000E+00 0.10000000000000E+01
 
[MO]
 Sym=     1a   
 Ene= -.19121162872061E+02
 Spin= Alpha
 Occup= 2.000000
     1 0.43505266197256E+00
     2 0.63975440227382E+00
     3 0.34173159888652E-01
     4 -.22117064558226E-01
     5 0.92113447127994E-02
     6 0.53602159169303E-15
     7 0.13193788958864E-14
     8 0.17849398700508E-02
     9 0.13319774438680E-13
    10 -.14991577124144E-14
    11 -.28849182323420E-02
    12 -.14633807404049E-14
    13 0.99771953692886E-15
    14 0.11303064517110E-02
    15 0.80885378413650E-04
    16 -.10007167208477E-03
    17 0.19186293671119E-04
    18 0.28955042300658E-16
    19 -.93074174568271E-15
    20 -.39453787335299E-15
    21 -.40354709663993E-03
    22 0.48427569097949E-03
    23 -.80728594339551E-04
    24 -.54917114580034E-16
    25 0.47866002040384E-14
    26 0.34541695693703E-15
    27 0.12627564454332E-15
    28 0.11190078772244E-15
    29 0.36575834697300E-04
    30 -.43340067800830E-15
    31 -.62495044662586E-16
    32 -.96640771561253E-04
    33 0.26398412294743E-15
    34 -.87635616187301E-16
    35 0.47569139931078E-04
    36 0.11713455207853E-15
    37 0.85765924969339E-03
    38 0.15193560053880E-02
    39 -.19124943803622E-02
    40 -.82254541085676E-03
    41 -.12219336004949E-15
    42 -.57144492944053E-03
    43 0.85765924970496E-03
    44 0.15193560053954E-02
    45 -.19124943803608E-02
    46 0.82254541086636E-03
    47 -.69098149070837E-16
    48 -.57144492944742E-03
 Sym=     2a   
 Ene= -.10185455761896E+01
 Spin= Alpha
 Occup= 2.000000
     1 -.97504384648808E-01
     2 -.22923920815632E+00
     3 0.33528291384594E+00
     4 0.43086765239002E+00
     5 0.15398382855815E+00
     6 0.17535972673954E-12
     7 0.23106213827630E-13
     8 0.89041948455127E-01
     9 -.14479528687161E-11
    10 -.67340272579267E-13
    11 0.72383820962220E-01
    12 -.14901413436519E-11
    13 -.14470156896210E-15
    14 0.11750678165345E-01
    15 0.19754416300034E-02
    16 -.27695039978555E-02
    17 0.79406236785211E-03
    18 0.70195401586068E-15
    19 0.32850612559052E-13
    20 -.34956468257948E-14
    21 0.36398884193592E-02
    22 -.62966566033143E-02
    23 0.26567681839552E-02
    24 -.12245737259603E-13
    25 -.60265650591262E-12
    26 0.18820903245129E-13
    27 -.41002575693020E-15
    28 -.66391958462490E-15
    29 -.42999952360653E-03
    30 0.27241679076637E-13
    31 -.33284370734877E-16
    32 0.13844276501184E-02
    33 -.26691571797624E-13
    34 0.92402596442370E-15
    35 -.80752275107235E-03
    36 0.41127906349409E-15
    37 0.97141056396344E-01
    38 0.70899497364965E-01
    39 0.69969949486497E-02
    40 -.15747994852406E-01
    41 -.11248214039481E-13
    42 -.86255887362693E-02
    43 0.97141056396201E-01
    44 0.70899497359637E-01
    45 0.69969949484801E-02
    46 0.15747994850832E-01
    47 -.12189798151302E-13
    48 -.86255887350780E-02
 Sym=     3a   
 Ene= -.53821387840835E+00
 Spin= Alpha
 Occup= 2.000000
     1 -.27350219878244E-14
     2 -.13936304686689E-12
     3 0.98716540805599E-12
     4 -.18339396269285E-11
     5 0.65789198005768E-11
     6 0.38723095717754E+00
     7 0.33811928951133E-13
     8 -.66313375709924E-13
     9 0.29251388208290E+00
    10 0.74103917446777E-13
    11 0.93576682797887E-12
    12 0.12027144582259E+00
    13 -.32795380994210E-13
    14 0.17470919693754E-11
    15 -.64645424526797E-14
    16 0.28239259634900E-13
    17 -.21774717182221E-13
    18 0.82366901733428E-14
    19 0.74810523221766E-02
    20 0.19480012630292E-14
    21 0.20302949114751E-12
    22 -.34706509497428E-12
    23 0.14403560382678E-12
    24 -.21481596447342E-13
    25 0.13338313082985E-01
    26 -.43391853326862E-15
    27 0.83992957803523E-03
    28 0.15764496350389E-14
    29 -.72335863671291E-14
    30 -.14167592210016E-02
    31 -.18755900282818E-14
    32 0.30273982327002E-13
    33 0.28987544132196E-03
    34 -.23943909994928E-15
    35 -.20569107824192E-13
    36 -.91372349805172E-15
    37 0.15093923489377E+00
    38 0.18601822739489E+00
    39 0.65175148934462E-01
    40 -.96640758094592E-02
    41 -.61218391467221E-14
    42 -.18430383926148E-01
    43 -.15093923489400E+00
    44 -.18601822740035E+00
    45 -.65175148936932E-01
    46 -.96640758110810E-02
    47 -.37123082385903E-14
    48 0.18430383926663E-01
 Sym=     4a   
 Ene= -.38915114708355E+00
 Spin= Alpha
 Occup= 2.000000
     1 0.37209099395691E-01
     2 0.88868006265906E-01
     3 -.13792017336260E+00
     4 -.20014469344351E+00
     5 -.23058744066143E+00
     6 0.52855710890868E-12
     7 0.10725706024737E-13
     8 0.41783551737209E+00
     9 -.21325509986624E-11
    10 0.46124634435694E-14
    11 0.31953489055071E+00
    12 0.28440908504153E-11
    13 0.13231985048183E-12
    14 0.23813544122627E+00
    15 -.68988413672293E-06
    16 -.27458265909736E-02
    17 0.27465164751103E-02
    18 0.19011654746186E-14
    19 0.21035947336300E-13
    20 0.10351867455817E-13
    21 -.82665367550182E-02
    22 -.68272568135919E-02
    23 0.15093793568610E-01
    24 0.11659556294988E-13
    25 -.43890276788465E-12
    26 -.50613343197100E-13
    27 -.38161726005559E-15
    28 0.11590823358339E-14
    29 0.25280792996604E-03
    30 0.22301037406016E-13
    31 -.14970481080505E-14
    32 0.61821617213809E-03
    33 -.21789044125093E-13
    34 -.58024028615782E-16
    35 -.95739360213114E-03
    36 -.35307353790020E-15
    37 0.86555153534808E-01
    38 0.12165258414871E+00
    39 0.42142761684279E-01
    40 -.17460232278687E-01
    41 0.55604326120659E-14
    42 0.99992840029794E-02
    43 0.86555153534583E-01
    44 0.12165258414318E+00
    45 0.42142761697580E-01
    46 0.17460232277222E-01
    47 0.13752920672575E-13
    48 0.99992840040135E-02
 Sym=     5a   
 Ene= -.31445901704593E+00
 Spin= Alpha
 Occup= 2.000000
     1 0.15434019446429E-13
     2 0.76303139018704E-14
     3 0.20956761144745E-12
     4 -.10238798506452E-11
     5 0.42304421489355E-11
     6 -.13506092416571E-12
     7 0.47631923553876E+00
     8 -.11312879032507E-12
     9 0.51969437327298E-12
    10 0.38294960593497E+00
    11 0.56483235767037E-12
    12 -.61854576158693E-12
    13 0.33853672862011E+00
    14 0.15026880641654E-11
    15 -.22754862372213E-13
    16 0.31888881359911E-13
    17 -.91340189876976E-14
    18 0.16400267702881E-14
    19 0.39264279541123E-15
    20 0.25578107753842E-02
    21 0.19578486812877E-12
    22 -.26540533496115E-12
    23 0.69620466832388E-13
    24 0.20613508995039E-13
    25 0.86407387306113E-13
    26 0.15387863465232E-01
    27 -.95652378043003E-15
    28 -.13471722468410E-02
    29 -.37792565570686E-14
    30 -.32752897933729E-14
    31 0.12346573021110E-02
    32 0.15286087753911E-13
    33 0.45586011104549E-14
    34 0.57276393069155E-03
    35 -.10215683014300E-13
    36 -.52471915586646E-15
    37 0.90395626871426E-13
    38 -.30611232114422E-11
    39 0.13957500967077E-11
    40 0.52300327398993E-12
    41 0.25875327587583E-01
    42 0.29959235305004E-12
    43 0.58680157999806E-13
    44 -.21108592537851E-11
    45 -.77215724952892E-12
    46 -.22398821470842E-12
    47 0.25875327587584E-01
    48 0.67481499372160E-13
 Sym=     6a   
 Ene= 0.19478018675632E-01
 Spin= Alpha
 Occup= 0.000000
     1 0.33186696176909E-01
     2 0.83837516268938E-01
     3 -.19245692121333E+00
     4 0.49205711011020E-01
     5 -.12000926164308E+01
     6 0.24770676048213E-10
     7 0.96130388216244E-15
     8 -.15454767311447E+00
     9 -.20979586070509E-10
    10 -.33143802704079E-12
    11 -.10721358697867E+00
    12 0.99681138210369E-10
    13 -.49180630025803E-12
    14 -.32779525971453E+00
    15 0.12478365645097E-02
    16 -.33978871923589E-03
    17 -.90804784527382E-03
    18 0.53105883010958E-14
    19 0.15302455420722E-12
    20 -.65041765704266E-14
    21 0.55403625916911E-02
    22 -.76233852601514E-03
    23 -.47780240656759E-02
    24 0.34186018689118E-13
    25 -.63360106614301E-11
    26 0.16487772214319E-13
    27 0.57182515440783E-14
    28 0.70225357397689E-14
    29 -.50983151793606E-04
    30 0.25869520847916E-12
    31 -.27903603737139E-15
    32 -.25854902236578E-03
    33 -.26636704797816E-12
    34 -.91426843357556E-14
    35 0.32695009823639E-03
    36 0.10805445895052E-13
    37 0.33553490741792E-01
    38 0.83854353650057E-01
    39 0.95335728509164E+00
    40 0.28734421344268E-01
    41 -.12001604371595E-12
    42 0.19402495806205E-01
    43 0.33553490745764E-01
    44 0.83854353589158E-01
    45 0.95335728554263E+00
    46 -.28734421365389E-01
    47 0.14411402344345E-12
    48 0.19402495823973E-01
 Sym=     7a   
 Ene= 0.94990428836475E-01
 Spin= Alpha
 Occup= 0.000000
     1 -.51329180446080E-11
     2 -.11263795002242E-10
     3 0.76659180791346E-11
     4 0.87607175634324E-10
     5 -.86942330593526E-10
     6 0.24781613823348E+00
     7 -.71834693080909E-13
     8 0.19770614734585E-10
     9 0.10481756397592E+00
    10 -.75510066660533E-13
    11 0.71968715949110E-11
    12 0.69083482924978E+00
    13 0.49103878808904E-12
    14 -.35142287975520E-10
    15 0.28262809941619E-12
    16 -.72278696988281E-12
    17 0.44015887046661E-12
    18 -.16519170621796E-13
    19 -.56885972378672E-03
    20 0.27482749215419E-15
    21 -.41384784626649E-11
    22 0.58746364344141E-11
    23 -.17361579717492E-11
    24 0.52798847795204E-13
    25 -.13321185372446E-01
    26 -.21712283288425E-14
    27 0.60659861280712E-03
    28 0.48120974385274E-15
    29 0.11023290806853E-12
    30 -.29812459962988E-04
    31 0.21296197234817E-14
    32 -.37178966774308E-12
    33 -.78402498001328E-03
    34 -.27752303426957E-14
    35 0.22389670226385E-12
    36 0.11766261591915E-13
    37 -.28169807763412E-01
    38 -.55081910012524E-02
    39 -.16897450149464E+01
    40 -.36906059437543E-01
    41 -.24893120348441E-13
    42 -.33716664386124E-01
    43 0.28169807756512E-01
    44 0.55081910976807E-02
    45 0.16897450148125E+01
    46 -.36906059413400E-01
    47 0.37781138784644E-12
    48 0.33716664377063E-01
 Sym=     8a   
 Ene= 0.36415591680998E+00
 Spin= Alpha
 Occup= 0.000000
     1 0.11194026366091E-11
     2 0.20176385488211E-11
     3 0.60277239430886E-11
     4 -.65609807527878E-10
     5 0.17335452097257E-09
     6 0.11088209933890E+00
     7 0.24670230230364E-12
     8 -.47788232309867E-11
     9 0.38145689952966E+00
    10 0.82275840061793E-12
    11 -.17863880456321E-12
    12 0.12912494698008E+01
    13 -.13344486158879E-11
    14 0.68753706346275E-10
    15 -.38736996504594E-12
    16 0.61627517293486E-12
    17 -.22890520788893E-12
    18 0.29016406647372E-13
    19 -.19164123471086E-01
    20 0.54725508615769E-14
    21 0.17052366946943E-11
    22 -.30657145672393E-11
    23 0.13604778725449E-11
    24 -.13115719744895E-12
    25 0.82679303486289E-01
    26 0.27425780143209E-13
    27 0.12873240915108E-02
    28 0.32079345181815E-14
    29 -.69157915995781E-13
    30 -.38739147627541E-02
    31 -.62034940686119E-14
    32 0.21641488260794E-12
    33 0.21467882561393E-02
    34 0.18995982785988E-14
    35 -.12362980179866E-12
    36 -.10935226269568E-13
    37 -.12610300337253E+00
    38 -.15102158685913E+01
    39 0.46206590438588E+00
    40 0.10107233556420E+00
    41 0.32202177899171E-13
    42 0.52853431969269E-01
    43 0.12610300337047E+00
    44 0.15102158684750E+01
    45 -.46206590442769E+00
    46 0.10107233555587E+00
    47 -.88822749829348E-13
    48 -.52853431965055E-01
 Sym=     9a   
 Ene= 0.41040128961811E+00
 Spin= Alpha
 Occup= 0.000000
     1 -.33666540156751E-01
     2 -.73552535722086E-01
     3 -.26886845850873E-01
     4 0.83016228258460E+00
     5 0.68048679481911E+00
     6 0.31191914557198E-11
     7 0.36539247357993E-11
     8 -.12445488819781E+00
     9 0.16428804282263E-10
    10 0.70352305952113E-11
    11 -.15038091237101E+00
    12 -.46395524792874E-10
    13 -.13519544120199E-10
    14 0.15809545256591E+01
    15 -.65796375262502E-02
    16 0.10578797287235E-01
    17 -.39991597609846E-02
    18 -.24814466224565E-13
    19 0.26951004307930E-12
    20 0.58589717550843E-13
    21 0.22025300213178E-01
    22 -.42842057520735E-01
    23 0.20816757307557E-01
    24 0.15994420372692E-13
    25 0.11484534299496E-11
    26 -.18103338637307E-12
    27 0.14814273940158E-13
    28 0.33505345851729E-14
    29 -.17459456508178E-02
    30 -.88647622941271E-13
    31 0.19985772618928E-14
    32 0.42697598720058E-02
    33 0.68772188800773E-13
    34 -.64937911179392E-14
    35 -.19273279758565E-02
    36 -.15053736349925E-14
    37 -.69803113678508E-01
    38 -.13631143924911E+01
    39 0.24814523976932E+00
    40 0.74495617986145E-01
    41 0.85144003818006E-13
    42 0.63964632189794E-01
    43 -.69803113679397E-01
    44 -.13631143925218E+01
    45 0.24814523975880E+00
    46 -.74495617983788E-01
    47 0.23090322231511E-12
    48 0.63964632186099E-01
 Sym=    10a   
 Ene= 0.42755003585663E+00
 Spin= Alpha
 Occup= 0.000000
     1 -.35151805503000E-12
     2 -.79609999725974E-12
     3 0.46221668010604E-12
     4 0.76841043377759E-11
     5 -.62309168410575E-11
     6 -.66414655248587E-12
     7 -.31783813732291E+00
     8 -.41444455502990E-11
     9 -.63035611408600E-12
    10 -.70019845850857E+00
    11 -.97672245000810E-11
    12 0.44271435820190E-11
    13 0.12339031695448E+01
    14 0.18154987042320E-10
    15 0.15459004960473E-13
    16 0.37484567111512E-13
    17 -.52943572071985E-13
    18 -.26817899907883E-13
    19 -.24437895218396E-13
    20 -.39353436896201E-02
    21 -.12406170445424E-12
    22 0.40192387010229E-13
    23 0.83869317444011E-13
    24 0.34911701215984E-13
    25 0.17280198153978E-12
    26 0.43177712267730E-02
    27 -.27607232633921E-14
    28 0.47643270083224E-03
    29 0.14595112722218E-13
    30 -.26084756749442E-14
    31 -.47446443600691E-03
    32 -.32253286277270E-13
    33 0.63123746053501E-14
    34 -.16473710745191E-03
    35 0.12671887765579E-13
    36 0.31263772603523E-14
    37 0.15312508624475E-12
    38 -.27869393174366E-11
    39 -.24791275217620E-11
    40 0.19313159352668E-12
    41 -.49036802748598E-02
    42 0.27438944197577E-13
    43 -.67973506246450E-13
    44 0.55762727350905E-12
    45 0.48164339684272E-12
    46 0.30869725051673E-12
    47 -.49036802746843E-02
    48 -.33150188867122E-12
 Sym=    11a   
 Ene= 0.44457063528941E+00
 Spin= Alpha
 Occup= 0.000000
     1 -.13087398850423E-01
     2 -.29597534500858E-01
     3 -.22759696685382E-01
     4 0.40456032846591E+00
     5 0.40671437929797E+00
     6 -.25591315445353E-11
     7 -.27137224393354E-11
     8 0.31581179346745E+00
     9 -.26172338769415E-11
    10 -.73213875638787E-11
    11 0.77307722858471E+00
    12 0.57995698483693E-11
    13 0.11585289460393E-10
    14 -.38609994581448E+00
    15 -.80931852742916E-02
    16 0.50062345919404E-02
    17 0.30869506823511E-02
    18 -.10006584020523E-13
    19 -.70159968395718E-13
    20 -.66247976844430E-13
    21 0.10315547099616E-01
    22 -.18103566025939E-01
    23 0.77880189263222E-02
    24 -.39475189451496E-13
    25 0.10146094644904E-11
    26 0.22200677012337E-12
    27 -.11560420104357E-13
    28 0.81260587877880E-14
    29 -.15615394634774E-02
    30 -.32849744596367E-13
    31 0.22515416578640E-15
    32 0.39918788038526E-02
    33 0.48359675717445E-13
    34 -.11127406068978E-13
    35 -.18968537699223E-02
    36 0.10145603936971E-13
    37 -.97604862415364E-01
    38 -.11565241217145E+01
    39 0.60686879657904E+00
    40 0.33934616468114E-01
    41 -.16180040543808E-12
    42 0.52987412861301E-01
    43 -.97604862413716E-01
    44 -.11565241217213E+01
    45 0.60686879659190E+00
    46 -.33934616466102E-01
    47 0.99476451509753E-13
    48 0.52987412859672E-01
 Sym=    12a   
 Ene= 0.57627747240710E+00
 Spin= Alpha
 Occup= 0.000000
     1 -.46069806138929E-10
     2 -.94679814430587E-10
     3 -.93810862544087E-10
     4 0.19842237224153E-08
     5 -.42891303601300E-08
     6 -.35507182909237E+00
     7 0.37570766492967E-12
     8 0.59082991468898E-10
     9 -.78278623093834E+00
    10 0.14654640352592E-11
    11 -.29537039133573E-10
    12 0.20145956512527E+01
    13 -.22605873748529E-11
    14 -.10687203175187E-08
    15 0.64068241348557E-11
    16 -.83435483669613E-11
    17 0.19367242321056E-11
    18 0.31085520043216E-14
    19 -.54760447856328E-02
    20 0.65376316867568E-14
    21 -.19876578613049E-10
    22 0.33586710542344E-10
    23 -.13710131929294E-10
    24 -.98109688518558E-13
    25 0.26442602950099E-01
    26 0.43645101085597E-13
    27 -.31799832160209E-03
    28 0.62914675952676E-14
    29 0.12504673946688E-11
    30 0.11920837412318E-03
    31 -.10725586733434E-13
    32 -.30796049248798E-11
    33 0.30743114417669E-03
    34 0.22846972006807E-14
    35 0.14019268660038E-11
    36 0.30236239593982E-14
    37 0.63742869527001E-01
    38 0.15905686461862E+00
    39 -.16782126513683E+01
    40 0.20209519571560E-01
    41 0.16436162506460E-13
    42 0.24018988447973E-01
    43 -.63742869566751E-01
    44 -.15905686301313E+00
    45 0.16782126530833E+01
    46 0.20209519692309E-01
    47 0.55259125437398E-12
    48 -.24018988558398E-01
 Sym=    13a   
 Ene= 0.59877028781404E+00
 Spin= Alpha
 Occup= 0.000000
     1 0.52422903448794E-01
     2 0.10866855666339E+00
     3 0.98569180390725E-01
     4 -.22591891652667E+01
     5 0.49152460985795E+01
     6 -.31275294146105E-09
     7 -.26297708820306E-13
     8 -.70959677759842E-01
     9 -.63604757379044E-09
    10 -.26715389517030E-11
    11 0.17213108280334E-01
    12 0.17432703993114E-08
    13 0.25889602360221E-11
    14 0.12445006230294E+01
    15 -.73648417036772E-02
    16 0.93215749677948E-02
    17 -.19567332641176E-02
    18 -.30730807048424E-13
    19 -.47442968535423E-11
    20 -.83037219482847E-13
    21 0.17721722746730E-01
    22 -.32135160796290E-01
    23 0.14413438049560E-01
    24 -.15315902967284E-12
    25 0.36313489626641E-10
    26 0.28534007992507E-12
    27 -.19560664562760E-12
    28 -.11270333411597E-13
    29 -.13794966482837E-02
    30 -.48068524720116E-12
    31 -.65478096582964E-14
    32 0.31919743723279E-02
    33 0.74311910108557E-12
    34 0.21668548640748E-13
    35 -.13411854041507E-02
    36 -.97341081817053E-14
    37 0.21869164925728E-01
    38 -.91269102422015E+00
    39 -.99983456815311E+00
    40 0.58359217101050E-01
    41 0.10023758511490E-12
    42 0.64759272754520E-01
    43 0.21869164802421E-01
    44 -.91269102447810E+00
    45 -.99983456511095E+00
    46 -.58359217038559E-01
    47 -.37343255635212E-12
    48 0.64759272687033E-01
 Sym=    14a   
 Ene= 0.11687560408925E+01
 Spin= Alpha
 Occup= 0.000000
     1 -.36032450744851E-02
     2 -.95895764878769E-02
     3 0.46513782427174E-01
     4 0.28861772125191E-01
     5 -.94521799703026E+00
     6 0.63676706434750E-11
     7 -.27166590622754E-12
     8 -.82033608358750E-01
     9 -.17082574995034E-10
    10 0.63920184815079E-12
    11 -.18999944880882E+00
    12 -.21247406612491E-10
    13 -.32517621749401E-12
    14 -.57521464934559E+00
    15 -.65441564335787E-02
    16 0.45725446828584E-03
    17 0.60869019652928E-02
    18 0.25938897293683E-13
    19 0.26527917996740E-12
    20 0.10961429653808E-13
    21 -.21352107302296E+00
    22 -.74034664559839E-01
    23 0.28755573758280E+00
    24 0.34769547285056E-12
    25 -.81714634346240E-11
    26 -.46332240928529E-13
    27 -.39108333784656E-13
    28 -.63279988309601E-15
    29 0.94435292550665E-03
    30 0.30602150761492E-12
    31 0.32062093310025E-14
    32 -.26794069748432E-02
    33 -.25355217191737E-12
    34 -.23572191981485E-14
    35 0.14124245731331E-02
    36 -.25232458193261E-14
    37 -.41596786947027E-01
    38 0.62988789668774E+00
    39 0.47834903709259E-01
    40 -.31228128714289E+00
    41 0.41083845071429E-12
    42 0.29938945530464E+00
    43 -.41596786942180E-01
    44 0.62988789663938E+00
    45 0.47834903684307E-01
    46 0.31228128712741E+00
    47 -.47343752862137E-12
    48 0.29938945531851E+00
 Sym=    15a   
 Ene= 0.11932295723908E+01
 Spin= Alpha
 Occup= 0.000000
     1 0.40312570076894E-14
     2 0.27499747084262E-13
     3 -.13133591489221E-12
     4 -.71948657235421E-13
     5 0.44653190814143E-13
     6 -.17066003507438E-12
     7 -.21344987144099E-12
     8 0.22225357490771E-12
     9 -.56630650794706E-12
    10 -.33323742749581E-13
    11 -.98768729919964E-13
    12 0.80505670530399E-12
    13 -.19136722543484E-12
    14 0.30166157714841E-12
    15 0.15663498166642E-14
    16 -.23543753180714E-14
    17 0.78802550140719E-15
    18 0.50875047841741E-02
    19 -.22551984370759E-15
    20 0.25722063879650E-14
    21 0.81425639906862E-13
    22 0.27302770066960E-12
    23 -.35445334057646E-12
    24 0.31275575455410E+00
    25 -.24594073814028E-12
    26 0.17210972014212E-12
    27 -.35081468470786E-16
    28 0.11303870960797E-14
    29 0.36094679616423E-14
    30 0.38566746008013E-14
    31 -.65389795386973E-15
    32 -.93701862066154E-14
    33 -.38096078718506E-14
    34 -.86267547876401E-15
    35 0.45275767717115E-14
    36 -.30447319551129E-02
    37 -.13769782912734E-12
    38 0.53377569167243E-12
    39 -.95096190356877E-12
    40 0.33972263889830E-13
    41 0.42143980416855E+00
    42 -.65615667150496E-12
    43 -.38968415977287E-13
    44 -.77342222178115E-12
    45 0.13098268958243E-11
    46 -.22726866607792E-12
    47 -.42143980416768E+00
    48 -.30511085729878E-12
 Sym=    16a   
 Ene= 0.12999854733150E+01
 Spin= Alpha
 Occup= 0.000000
     1 -.34651645153879E-13
     2 -.13191429189284E-12
     3 0.66241780915999E-12
     4 -.37800539449759E-12
     5 0.23812259551944E-12
     6 0.25691138984649E-12
     7 -.10062703686181E+00
     8 -.20386126229922E-12
     9 -.87880551193344E-13
    10 -.63015707849319E-01
    11 0.14565710819387E-12
    12 -.76236571074709E-12
    13 -.20380368410602E+00
    14 0.30725768079111E-12
    15 -.12572667222459E-14
    16 -.10794862730806E-14
    17 0.23367529953265E-14
    18 -.11302676409358E-13
    19 -.12830451120424E-14
    20 0.65721201880871E-03
    21 0.13607208617047E-12
    22 -.17415997417211E-12
    23 0.38087888001643E-13
    24 -.29400905977288E-12
    25 -.42230234638107E-13
    26 0.39043838043211E+00
    27 0.11109348473807E-14
    28 0.14622560589590E-02
    29 -.32096396828623E-14
    30 0.13058834993269E-14
    31 -.41627858477146E-02
    32 0.98780877925365E-14
    33 -.27963590017168E-14
    34 0.22009634787087E-02
    35 -.55719042840399E-14
    36 0.26149101822305E-14
    37 0.50852397992217E-13
    38 -.77468230351139E-13
    39 0.67695459136910E-12
    40 -.22800637346583E-13
    41 0.37676686175601E+00
    42 0.95372032940710E-13
    43 0.33671394846675E-12
    44 -.72832984215581E-12
    45 -.66237083138344E-12
    46 -.16817635698836E-12
    47 0.37676686175644E+00
    48 0.12339180842641E-12
 Sym=    17a   
 Ene= 0.15088182745861E+01
 Spin= Alpha
 Occup= 0.000000
     1 -.76356429906610E-12
     2 -.18769814701961E-11
     3 -.13933539593569E-11
     4 0.39909015573063E-10
     5 0.30565621723214E-11
     6 -.12993304903724E+00
     7 0.10765394113680E-12
     8 -.16861693957886E-11
     9 0.10775612971253E+01
    10 -.60945812612441E-13
    11 0.20400800062061E-10
    12 0.96414547678296E+00
    13 -.29949692549206E-14
    14 0.10576995306160E-10
    15 -.33422369398166E-13
    16 0.20933861948070E-12
    17 -.17591625008254E-12
    18 0.26005149034495E-13
    19 -.53687793310944E-02
    20 0.33258865640035E-14
    21 0.12350195980994E-10
    22 -.22537526652280E-10
    23 0.10187330671285E-10
    24 -.38094411267349E-13
    25 0.72785580115626E+00
    26 0.15154341517461E-12
    27 0.12175083512255E-02
    28 0.86405755897351E-15
    29 -.17065198974426E-12
    30 -.17082202463036E-01
    31 0.28391285476057E-15
    32 0.66176501961801E-12
    33 0.15448743601128E-01
    34 -.14431677177630E-14
    35 -.43281134987975E-12
    36 -.11565413729505E-13
    37 0.35773460862862E+00
    38 -.23324859282369E+01
    39 0.54141739677518E+00
    40 0.24983063928641E+00
    41 0.13859553332377E-12
    42 0.45876066314388E+00
    43 -.35773460861539E+00
    44 0.23324859281336E+01
    45 -.54141739673831E+00
    46 0.24983063926614E+00
    47 -.43555059316768E-12
    48 -.45876066313162E+00
 Sym=    18a   
 Ene= 0.16269459299367E+01
 Spin= Alpha
 Occup= 0.000000
     1 0.15894379509718E-01
     2 0.54431860791924E-01
     3 -.45900743885721E+00
     4 0.99818124193981E+00
     5 0.19660336033935E+01
     6 -.55560926839719E-11
     7 0.11437090800729E-11
     8 -.11234601497309E+00
     9 0.45419280483904E-11
    10 -.20278122291992E-11
    11 0.65615666186486E+00
    12 -.23908188872030E-10
    13 0.11902915506540E-11
    14 0.98481042985599E+00
    15 -.54621069481448E-03
    16 0.30981382140095E-02
    17 -.25519275191950E-02
    18 -.50740895020274E-13
    19 -.38060634895744E-12
    20 -.22227990100642E-13
    21 0.47751132783391E+00
    22 -.65934650769219E+00
    23 0.18183517985828E+00
    24 0.14491141064217E-12
    25 -.13119079645538E-10
    26 0.64607196427562E-13
    27 0.27809265012782E-13
    28 0.73738391614218E-14
    29 -.69091507418039E-02
    30 -.21004916751276E-14
    31 0.32152529197184E-14
    32 0.21577210248629E-01
    33 -.35209552508604E-13
    34 -.13108296291772E-13
    35 -.12307611813349E-01
    36 0.27244484401196E-14
    37 0.35963497147370E+00
    38 -.22979734902793E+01
    39 0.20461888117877E+00
    40 0.30547649328667E+00
    41 -.20049125700919E-12
    42 0.20331503658398E+00
    43 0.35963497149491E+00
    44 -.22979734903602E+01
    45 0.20461888121598E+00
    46 -.30547649326339E+00
    47 -.29267185321506E-12
    48 0.20331503659627E+00
 Sym=    19a   
 Ene= 0.17663387439657E+01
 Spin= Alpha
 Occup= 0.000000
     1 -.69397486155676E-12
     2 -.22517286768100E-11
     3 0.13361392098791E-10
     4 -.17893078049525E-10
     5 -.24892149991727E-10
     6 -.17230341796097E+00
     7 0.22468949869831E-12
     8 0.33345399202897E-11
     9 0.30569576013085E+00
    10 -.22468614362775E-12
    11 -.89164581366805E-11
    12 -.39260939417185E+00
    13 0.14082839486193E-12
    14 -.10853624242850E-10
    15 -.51504167706376E-13
    16 0.57322565538304E-13
    17 -.58183978319286E-14
    18 -.66368037029941E-14
    19 -.72463645262813E-02
    20 -.16306797301543E-14
    21 -.49483664405190E-11
    22 0.41752150330236E-11
    23 0.77315140749539E-12
    24 0.35135740805974E-13
    25 0.25738125701757E+00
    26 0.19301399149068E-12
    27 -.22405636829187E-02
    28 -.12350103344730E-14
    29 0.11612016281619E-12
    30 -.54411136475322E-02
    31 0.20766889282465E-14
    32 -.27637845230185E-12
    33 0.84471452692863E-02
    34 -.41974869176866E-15
    35 0.12058690573265E-12
    36 0.17627951323224E-14
    37 0.10579220045878E+00
    38 -.44305962809247E+00
    39 0.36502383304258E+00
    40 0.59375661620579E+00
    41 -.24292145148699E-12
    42 -.52995367389850E+00
    43 -.10579220047114E+00
    44 0.44305962814765E+00
    45 -.36502383304400E+00
    46 0.59375661621065E+00
    47 -.10924613380804E-12
    48 0.52995367389147E+00
 Sym=    20a   
 Ene= 0.19635646283509E+01
 Spin= Alpha
 Occup= 0.000000
     1 0.14327556279279E-01
     2 0.61362201262075E-01
     3 -.81433410069972E+00
     4 0.27395365473471E+01
     5 -.17739702168066E+00
     6 0.97873645347875E-12
     7 -.65766265049828E-13
     8 -.40290361526307E+00
     9 0.97212990690306E-11
    10 -.41530548487545E-12
    11 0.13850934944913E+01
    12 0.13252181416997E-11
    13 -.65250395175845E-13
    14 -.81712555733509E-01
    15 -.37836541971888E-03
    16 0.33710267708777E-03
    17 0.41262742631110E-04
    18 -.55956798319132E-13
    19 -.21908936549881E-12
    20 0.30050033012886E-13
    21 0.50907669181294E-01
    22 0.92577947287689E-01
    23 -.14348561646898E+00
    24 0.90648765586223E-12
    25 0.78135770517377E-11
    26 -.52727552019046E-12
    27 -.90362408843882E-15
    28 0.94216959204426E-14
    29 -.18976340392897E-01
    30 -.12206203229848E-12
    31 0.13740101921465E-13
    32 0.43996397215916E-01
    33 0.12327437123120E-12
    34 -.26380633446331E-13
    35 -.18536964966300E-01